<?xml version="1.0" encoding="UTF-8"?>

<!-- generated on 04/10/22 23:47:41 by Eclipse SUMO Version 1.6.0
<configuration xmlns:xsi="http://www.w3.org/2001/XMLSchema-instance" xsi:noNamespaceSchemaLocation="http://sumo.dlr.de/xsd/sumoConfiguration.xsd">

    <input>
        <net-file value="D:\FTT\sumo_test\llcd\llcd.net.xml"/>
        <route-files value="D:\FTT\sumo_test\llcd\llcd.rou.xml"/>
        <additional-files value="D:\FTT\sumo_test\llcd\llcd.add.xml"/>
    </input>

    <output>
        <summary-output value="D:\FTT\sumo_test\llcd\output_sumo.xml"/>
        <lanechange-output value="D:\FTT\sumo_test\llcd\llcd.lanechange.xml"/>
    </output>

    <time>
        <begin value="0"/>
        <end value="3600"/>
    </time>

    <processing>
        <time-to-teleport value="-1"/>
    </processing>

    <report>
        <no-warnings value="true"/>
        <duration-log.disable value="true"/>
        <no-step-log value="true"/>
    </report>

    <traci_server>
        <remote-port value="58854"/>
    </traci_server>

    <random_number>
        <random value="false"/>
        <seed value="0"/>
    </random_number>

    <gui_only>
        <start value="true"/>
    </gui_only>

</configuration>
-->

<meandata xmlns:xsi="http://www.w3.org/2001/XMLSchema-instance" xsi:noNamespaceSchemaLocation="http://sumo.dlr.de/xsd/meandata_file.xsd">
    <interval begin="0.00" end="3600.00" id="MEASUREMENT_1">
        <edge id="gneE0">
            <lane id="gneE0_0" sampledSeconds="12833.27" traveltime="7.81" overlapTraveltime="8.14" density="19.46" laneDensity="19.46" occupancy="9.53" waitingTime="0.00" speed="23.12" departed="1604" arrived="0" entered="0" left="1605" laneChangedFrom="106" laneChangedTo="110"/>
            <lane id="gneE0_1" sampledSeconds="11612.81" traveltime="6.60" overlapTraveltime="6.79" density="17.61" laneDensity="17.61" occupancy="8.68" waitingTime="0.00" speed="27.70" departed="1777" arrived="0" entered="0" left="1770" laneChangedFrom="110" laneChangedTo="106"/>
        </edge>
        <edge id="gneE1">
            <lane id="gneE1_0" sampledSeconds="18177.81" traveltime="21.92" overlapTraveltime="22.13" density="12.62" laneDensity="12.62" occupancy="6.23" waitingTime="0.00" speed="18.30" departed="0" arrived="0" entered="1345" left="613" laneChangedFrom="1241" laneChangedTo="513"/>
            <lane id="gneE1_1" sampledSeconds="46156.09" traveltime="23.08" overlapTraveltime="23.26" density="32.05" laneDensity="32.05" occupancy="15.86" waitingTime="3.00" speed="17.41" departed="0" arrived="0" entered="1599" left="2129" laneChangedFrom="853" laneChangedTo="1397"/>
            <lane id="gneE1_2" sampledSeconds="25436.38" traveltime="13.22" overlapTraveltime="13.39" density="17.66" laneDensity="17.66" occupancy="8.71" waitingTime="0.00" speed="30.24" departed="0" arrived="0" entered="1775" left="1952" laneChangedFrom="156" laneChangedTo="340"/>
        </edge>
        <edge id="gneE2">
            <lane id="gneE2_0" sampledSeconds="14045.09" traveltime="6.45" overlapTraveltime="6.62" density="21.30" laneDensity="21.30" occupancy="10.38" waitingTime="0.00" speed="28.44" departed="0" arrived="2126" entered="2129" left="0" laneChangedFrom="0" laneChangedTo="0"/>
            <lane id="gneE2_1" sampledSeconds="12541.46" traveltime="6.27" overlapTraveltime="6.44" density="19.02" laneDensity="19.02" occupancy="9.26" waitingTime="0.00" speed="29.21" departed="0" arrived="1948" entered="1951" left="0" laneChangedFrom="0" laneChangedTo="0"/>
        </edge>
        <edge id="gneE3">
            <lane id="gneE3_0" sampledSeconds="9945.92" traveltime="7.33" overlapTraveltime="7.57" density="13.51" laneDensity="13.51" occupancy="6.64" waitingTime="0.00" speed="27.68" departed="1348" arrived="0" entered="0" left="1346" laneChangedFrom="0" laneChangedTo="0"/>
        </edge>
        <edge id="gneE4">
            <lane id="gneE4_0" sampledSeconds="4431.79" traveltime="7.09" overlapTraveltime="7.26" density="6.02" laneDensity="6.02" occupancy="2.94" waitingTime="0.00" speed="28.85" departed="0" arrived="610" entered="613" left="0" laneChangedFrom="0" laneChangedTo="0"/>
        </edge>
    </interval>
</meandata>
